<?xml version="1.0" encoding="UTF-8"?>

<!-- generated on 2022-03-04 17:00:29 by Eclipse SUMO sumo Version 1.12.0
<configuration xmlns:xsi="http://www.w3.org/2001/XMLSchema-instance" xsi:noNamespaceSchemaLocation="http://sumo.dlr.de/xsd/sumoConfiguration.xsd">

    <input>
        <net-file value="/home/andreas/Sumo/2022-03-04-16-59-52/osm.net.xml"/>
        <route-files value="/home/andreas/Sumo/2022-03-04-16-59-52/trips.trips.xml"/>
        <additional-files value="/home/andreas/Sumo/2022-03-04-16-59-52/osm_stops.add.xml"/>
    </input>

    <output>
        <vehroute-output value="/home/andreas/Sumo/2022-03-04-16-59-52/vehroutes.xml"/>
        <stop-output value="/home/andreas/Sumo/2022-03-04-16-59-52/stopinfos.xml"/>
    </output>

    <time>
        <begin value="0"/>
    </time>

    <processing>
        <ignore-route-errors value="true"/>
    </processing>

    <routing>
        <device.rerouting.adaptation-interval value="0"/>
    </routing>

    <report>
        <aggregate-warnings value="5"/>
        <error-log value="/home/andreas/Sumo/2022-03-04-16-59-52/trips.trips.xml.errorlog"/>
        <no-step-log value="true"/>
    </report>

</configuration>
-->

<routes xmlns:xsi="http://www.w3.org/2001/XMLSchema-instance" xsi:noNamespaceSchemaLocation="http://sumo.dlr.de/xsd/routes_file.xsd">
    <vehicle id="19_bus_140:0" type="pt_bus" depart="139.00" departLane="0" arrival="346.00">
        <route edges="4395057#0 4395057#2 4395057#3 4395057#4 4395057#5 708595510#1 31003580#0 31003580#1 151372362#1 464372608#0 30709742#1 30709742#2 30709742#3 -169753571#5 -169753571#4 -169753571#3 -169753571#2"/>
        <stop busStop="2959911355" duration="30.00"/>
        <stop busStop="1641989545" duration="30.00"/>
        <stop busStop="-3953205631" duration="30.00"/>
    </vehicle>

    <vehicle id="17_bus_106:0" type="pt_bus" depart="133.00" departLane="0" arrival="367.00">
        <route edges="151353900#0 151353900#3 151353900#4 27734926 721729573#2 71834345#1 71834345#2 71834345#3 71834345#4 71834345#5 71834345#6 71834345#7 71834345#8 71834345#9 71834345#10 8008819#0 8008819#1 8008819#5 8008819#8"/>
        <stop busStop="853670874" duration="30.00"/>
        <stop busStop="3992224600" duration="30.00"/>
        <stop busStop="3992224604" duration="30.00"/>
    </vehicle>

    <vehicle id="18_bus_106:1" type="pt_bus" depart="136.00" departLane="0" arrival="368.00">
        <route edges="-8008819#8 -8008819#7 -8008819#3 -8008819#0 -71834345#10 -71834345#9 -71834345#8 -71834345#7 -71834345#6 -71834345#5 -71834345#4 -71834345#3 -71834345#2 -71834345#1 -71834345#0 -721729573#0 -151353900#4 -151353900#3 -151353900#2"/>
        <stop busStop="-3992224603" duration="30.00"/>
        <stop busStop="-3992224601" duration="30.00"/>
        <stop busStop="-853670941" duration="30.00"/>
    </vehicle>

    <vehicle id="20_bus_140:1" type="pt_bus" depart="160.00" departLane="0" arrival="375.00">
        <route edges="169753571#0 169753571#3 169753571#4 169753571#5 21870993#0 21870993#1 -464372608#2 -151372362#1 35072914#0 35072914#1 311149289#0 311149289#1 311149289#2 311149289#3 30709737#0 708595512#1 327627453#0 327627453#1"/>
        <stop busStop="3953205632" duration="30.00"/>
        <stop busStop="-3953205611" duration="30.00"/>
        <stop busStop="3948690907" duration="30.00"/>
    </vehicle>

    <vehicle id="1_bus_743:1" type="pt_bus" depart="15.00" departLane="0" arrival="562.00">
        <route edges="345381310#1 -813553200#1 -4378528#9 -4378528#8 -4378528#7 -4378528#4 -4378528#1 -4378528#0 -50003453#4 -50003453#3 -50003453#2 -156579491 30958167#0 30958167#1 30958167#5 30958167#6 30958167#7 64826670#0 64826670#1 64826670#2 211549666#1 499429662 211549617#0 211549617#2 211549617#5 211549617#8 30198295#0 30198295#1 793358797#2 793358797#3 793358797#4 793358797#5 793358797#6 793358797#7 793358797#8 793358797#9 793358797#10 29435079#0 29435079#3 29435079#4 29435079#5 29435079#6"/>
        <stop busStop="3858390217" duration="30.00"/>
        <stop busStop="-3948196630" duration="30.00"/>
        <stop busStop="-3948196607" duration="30.00"/>
        <stop busStop="3948196619" duration="30.00"/>
        <stop busStop="3948196622" duration="30.00"/>
        <stop busStop="3992457469" duration="30.00"/>
        <stop busStop="3675413512" duration="30.00"/>
    </vehicle>

    <vehicle id="3_bus_X71:1" type="pt_bus" depart="17.00" departLane="0" arrival="580.00">
        <route edges="881575686 30961317#1 30961317#2 156579493#1 156579493#2 156579493#3 156579493#4 156579493#5 156579493#6 156579493#7 156579493#8 779835108#1 779835107#1 779835107#2 779835107#3 779835107#4 779835107#5 779835107#9 779835107#10 779835107#11 779835107#12 779835107#13 779835107#14 779835107#20 779835107#21 779835107#22 779835107#23 928854931 30962287#0 30962287#1 30962287#2 30962287#3 30962287#7 30962287#8 30962287#9 30962287#10 30962287#11 30962287#12 30962287#15 30962287#16 30962287#17 30962287#18 211575763#0 5110865#1 5110865#2 5110865#3 5110865#4 5110865#5 5110865#6 5110865#7 340089612#0 437191426#3 437191426#4 437191426#7 437191426#8 437191426#9 437191426#10 437191427#0 437191427#1 340089611#0 340089611#4 340089611#5"/>
        <stop busStop="8198655661" duration="30.00"/>
        <stop busStop="3884823924" duration="30.00"/>
        <stop busStop="3835766167" duration="30.00"/>
        <stop busStop="3837126271" duration="30.00"/>
    </vehicle>

    <vehicle id="0_bus_743:0" type="pt_bus" depart="3.00" departLane="0" arrival="586.00">
        <route edges="-29435079#6 -29435079#5 -29435079#4 -29435079#3 -29435079#2 -793358797#12 -793358797#9 -793358797#8 -793358797#7 -793358797#6 -793358797#5 -793358797#4 -793358797#3 -793358797#2 -793358797#0 -30198295#0 -793358796 -211549617#7 -211549617#4 -211549617#0 -499429662 9048051#0 212891839#1 64826671#1 64826671#2 64826671#3 64826671#4 64826669#1 64826669#2 64826669#6 325125417#0 325125417#2 50003453#0 50003453#3 50003453#4 4378528#0 4378528#1 4378528#2 4378528#5 4378528#8 4378528#9 813553200#0 -858123638#2 -345381310#0"/>
        <stop busStop="-324822679" duration="30.00"/>
        <stop busStop="-3675413507" duration="30.00"/>
        <stop busStop="-3992457468" duration="30.00"/>
        <stop busStop="3948196621" duration="30.00"/>
        <stop busStop="3948196620" duration="30.00"/>
        <stop busStop="3948196606" duration="30.00"/>
        <stop busStop="3948196631" duration="30.00"/>
        <stop busStop="-4277830362" duration="30.00"/>
    </vehicle>

    <vehicle id="13_bus_X11:0" type="pt_bus" depart="119.00" departLane="0" arrival="592.00">
        <route edges="114381363#0 114381363#1 114381363#2 114381363#3 72307633#0 72307633#2 72307633#3 72307633#4 72307633#5 72307633#6 72307633#7 72307633#8 72307633#9 72307633#10 72307633#11 72307633#14 72307633#15 72307633#16 72307633#17 72307633#18 983507005#1 966158287#0 966158287#1 966158287#2 211576016#1 211576016#2 4713303#1 37815463#1 37815463#3 60913017#1 60913017#2 60913017#3 60913017#4 60913017#7 29887243#0 29887243#2 29887243#3 29887243#4 29887243#5 63972161#0 63972161#2 29546980#0 29546980#1 29546980#2 712590575#1 712355891#2 712355891#4 712355891#5 -28100655#3 -28100655#2 -28100655#1 28100651#0 28100651#1 28100651#2 28100651#3 29434388#1 29434388#2 29434388#3 404580763#0 404580768#1 404580768#2 404580768#3"/>
        <stop busStop="3837126272" duration="30.00"/>
        <stop busStop="3835766168" duration="30.00"/>
        <stop busStop="3835766171" duration="30.00"/>
    </vehicle>

    <vehicle id="2_bus_X71:0" type="pt_bus" depart="15.00" departLane="0" arrival="597.00">
        <route edges="114381363#0 114381363#1 114381363#2 114381363#3 72307633#0 72307633#2 72307633#3 72307633#4 72307633#5 72307633#6 72307633#7 72307633#8 72307633#9 72307633#10 72307633#11 72307633#14 72307633#15 72307633#16 72307633#17 72307633#18 983507005#1 966158287#0 966158287#1 966158287#2 211576016#1 211576016#2 37910336#2 37910336#3 37910336#4 37910336#5 37910336#6 37910336#7 37910336#10 37910336#11 37910336#12 37910336#16 37910336#17 37910336#18 37910336#19 37910336#20 37910336#21 37910336#23 37910336#24 37910336#27 37910336#28 30962289#0 30962289#1 30962289#2 30962289#3 30962289#4 30962289#8 30962289#9 30962289#10 30962289#11 30962289#12 30962289#13 30962289#17 30962289#19 30962289#20 30962289#21 30962289#22 30962289#27 30962289#28 30962289#29 30962289#30 30962289#31 30962289#33 30962289#34 30962289#35 30962289#36 30962289#37 478432727#0"/>
        <stop busStop="3837126272" duration="30.00"/>
        <stop busStop="3835766169" duration="30.00"/>
        <stop busStop="3884823927" duration="30.00"/>
        <stop busStop="6238926223" duration="30.00"/>
    </vehicle>

    <vehicle id="49_subway_U6:1" type="pt_subway" depart="437.00" departLane="0" arrival="750.00">
        <route edges="387345822 386496527#1 386496527#2 300526958"/>
        <stop busStop="3045559658" duration="30.00"/>
        <stop busStop="3045559667" duration="30.00"/>
        <stop busStop="3045559677" duration="30.00"/>
        <stop busStop="3045559684" duration="30.00"/>
        <stop busStop="3045559693" duration="30.00"/>
    </vehicle>

    <vehicle id="48_subway_U6:0" type="pt_subway" depart="437.00" departLane="0" arrival="751.00">
        <route edges="806903756 300295481#0 300295481#1 300295481#2 386496523#1"/>
        <stop busStop="3043920508" duration="30.00"/>
        <stop busStop="31034999" duration="30.00"/>
        <stop busStop="31034998" duration="30.00"/>
        <stop busStop="1641970590" duration="30.00"/>
        <stop busStop="29058344" duration="30.00"/>
    </vehicle>

    <vehicle id="36_train_S2:0" type="pt_train" depart="353.00" departLane="0" arrival="773.00">
        <route edges="30144209 292551161 349933512#0 349933512#1 349933512#2"/>
        <stop busStop="332219312" duration="30.00"/>
        <stop busStop="34654812" duration="30.00"/>
    </vehicle>

    <vehicle id="11_bus_275:0" type="pt_bus" depart="98.00" departLane="0" arrival="853.00">
        <route edges="829543514#0 829543514#2 829543514#3 829543514#5 804991967#0 804991971#1 804991971#2 804991971#3 804991971#4 804991971#5 804991971#6 804991971#8 60913021 4394891 829543513#2 156579491 50003453#0 50003453#3 50003453#4 4378528#0 4378528#1 4378528#2 4378528#5 4378528#8 4378528#9 813553200#0 -858123638#2 -345381310#0 -589691163#3 -589691163#2 -589691163#1 -589691163#0 -30084961#6 -30084961#5 -30084961#4 -30084961#3 -30084961#2 -30084961#1 -30084961#0 -4378695#2 -4378695#1 -4378695#0 152952074#1 152952074#2 152952074#3 152952074#5 152952074#6 152952074#7 152952074#8 152952074#9 589691158 36193087#0 36193087#1 883733096 5110893#0 859195720#1"/>
        <stop busStop="3948196618" duration="30.00"/>
        <stop busStop="3948196616" duration="30.00"/>
        <stop busStop="3948196626" duration="30.00"/>
        <stop busStop="3948196606" duration="30.00"/>
        <stop busStop="3948196631" duration="30.00"/>
        <stop busStop="-3858390216" duration="30.00"/>
        <stop busStop="-3948196632" duration="30.00"/>
        <stop busStop="324820692" duration="30.00"/>
        <stop busStop="324820690" duration="30.00"/>
    </vehicle>

    <vehicle id="25_bus_M46:0" type="pt_bus" depart="204.00" departLane="0" arrival="864.00">
        <route edges="-354645907#5 -354645907#4 -354645907#3 -354645907#2 -354645907#1 -354645907#0 -4357826#2 -464372608#2 -151372362#1 35072914#0 35072914#1 311149289#0 311149289#1 311149289#2 311149289#3 30709740#1 30709740#2 30709740#3 30709740#5 785567939 708434640#0 708434640#1 151456841#0 151456841#1 151456841#2 151456841#3 151456841#5 151456841#8 151456841#11 151456841#13 151456841#14 151456841#15 151456841#18 151456841#20 549990625#0 549990625#1 156597529#0 -431727416#0 -4357829#9 -4357829#8 -4357829#7 -4357829#6 -4357829#5 -4357829#4 -4357829#3 -4357829#2 -4357829#0 31003576#0 31003576#1 31003576#2 31003576#3 31003576#4 31003576#5 31003576#6 31003576#8 31003576#9 31003576#10 31003576#11 31003576#12 31003576#13 31003576#15 31003576#16 31003576#17 31003576#18 785566177#0 785566177#1 5096266#0 5096266#1 836498507#1 837200686 41517092#1 41517092#2 647762532 837200677#0 837200677#1 837200677#2"/>
        <stop busStop="-3953205611" duration="30.00"/>
        <stop busStop="3948690905" duration="30.00"/>
        <stop busStop="3157588154" duration="30.00"/>
        <stop busStop="3887481881" duration="30.00"/>
        <stop busStop="-3992224609" duration="30.00"/>
        <stop busStop="462742599" duration="30.00"/>
        <stop busStop="3887481861" duration="30.00"/>
    </vehicle>

    <vehicle id="21_bus_M77:0" type="pt_bus" depart="165.00" departLane="0" arrival="868.00">
        <route edges="459221258#3 391889970#1 30961021#1 30961021#2 30961021#4 30961021#8 30961021#9 205735222#0 30962394#0 26180781#2 574720666 328638900#0 398618993#1 156579473#0 156579473#2 156579473#3 156579473#4 200767368#0 200767369#0 200767369#1 200767369#2 38198840#1 200767367#0 200767367#1 200767367#3 200767367#4 200775246#0 200775246#1 674133615#1 674133615#4 674133615#5 674133614#2 674133614#3 674133614#5 674133614#6 674133614#7 25415938 29889009#0 29640145 45356977 550526230#0 29560338#1 29491064#0 29491064#1 48204103 120395206 120395207#0 120395207#1 120395207#2 120395207#3 120395207#4 120395207#5 -29560338#2 29560822#1 25415937#2 25415937#3 25415937#6 25415937#9 25415937#10 25415937#11 25415937#12 25415937#13 25415937#14"/>
        <stop busStop="3884823933" duration="30.00"/>
        <stop busStop="1688091813" duration="30.00"/>
        <stop busStop="3949690700" duration="30.00"/>
        <stop busStop="1706123233" duration="30.00"/>
        <stop busStop="3949690694" duration="30.00"/>
        <stop busStop="3949690706" duration="30.00"/>
        <stop busStop="3949690699" duration="30.00"/>
        <stop busStop="3949690689" duration="30.00"/>
        <stop busStop="3949690697" duration="30.00"/>
    </vehicle>

    <vehicle id="14_bus_X11:1" type="pt_bus" depart="125.00" departLane="0" arrival="870.00">
        <route edges="140270693#0 140270693#1 140270693#4 140270693#5 140270693#6 404580766#0 404580766#1 29434387#0 29434387#4 29434387#5 29434387#6 28100655#1 28100655#2 28100655#3 28100655#4 -712355891#4 -712355891#2 -712355891#1 -712590575#0 -29546980#1 -29546980#0 29546980#0 29546980#1 29546980#2 712590575#1 712355891#2 712355891#4 712355891#5 -28100655#3 -28100655#2 -28100655#1 28100651#0 28100651#1 28100651#2 28100651#3 29434390#1 29434390#2 149849318#0 -149849327#9 -149849327#6 -149849327#5 -149849327#4 -149849327#3 -149849327#2 -149849327#1 -149849327#0 574496635#0 574496635#1 854788999 4716389#0 4716389#1 4716389#3 574496634 854788998#0 854788998#2 440813884#0 440813884#1 440813884#2 440813884#3 440813884#4 440813884#5 440813884#6 440813884#7 440813884#8 440813884#9 440813884#10 440813884#11 440813884#12 440813884#13 154837296#0 154837296#3 154837296#4 154837296#5 154837296#6 154837296#7 691097449#0 691097449#2 589687024#0 589687024#1 589687024#2 589687024#3 589687024#5 589687024#6 589687024#7 589687024#8 589687024#12 589687024#16 589687024#17 589687024#18 589687024#19 589687024#20 520386235#0 29887240#0 29887240#3 29887240#5 29887240#6 29887240#7 29887240#8 60913018#1 211575813#0 5110865#1 5110865#2 5110865#3 5110865#4 5110865#5 5110865#6 5110865#7 340089612#0 437191426#3 437191426#4 437191426#7 437191426#8 437191426#9 437191426#10 437191427#0 437191427#1 340089611#0 340089611#4 340089611#5"/>
        <stop busStop="-3835766170" duration="30.00"/>
        <stop busStop="3835766167" duration="30.00"/>
        <stop busStop="3837126271" duration="30.00"/>
    </vehicle>

    <vehicle id="23_bus_M11:0" type="pt_bus" depart="173.00" departLane="0" arrival="877.00">
        <route edges="114381363#0 114381363#1 114381363#2 114381363#3 72307633#0 72307633#2 72307633#3 72307633#4 72307633#5 72307633#6 72307633#7 72307633#8 72307633#9 72307633#10 72307633#11 72307633#14 72307633#15 72307633#16 72307633#17 72307633#18 983507005#1 966158287#0 966158287#1 966158287#2 211576016#1 211576016#2 4713303#1 37815463#1 37815463#3 60913017#1 60913017#2 60913017#3 60913017#4 60913017#7 29887243#0 29887243#2 29887243#3 29887243#4 29887243#5 63972161#0 63972161#2 29546980#0 29546980#1 29546980#2 712590575#1 712355891#2 712355891#4 712355891#5 -28100655#3 -28100655#2 -28100655#1 28100651#0 28100651#1 28100651#2 28100651#3 29434388#1 29434388#2 29434388#3 404580763#0 404580768#1 404580768#2 404580768#3"/>
        <stop busStop="3837126272" duration="30.00"/>
        <stop busStop="3837124952" duration="30.00"/>
        <stop busStop="3837126258" duration="30.00"/>
        <stop busStop="3835766168" duration="30.00"/>
        <stop busStop="3835766165" duration="30.00"/>
        <stop busStop="3835766161" duration="30.00"/>
        <stop busStop="3835766171" duration="30.00"/>
        <stop busStop="3842232851" duration="30.00"/>
    </vehicle>

    <vehicle id="22_bus_M77:1" type="pt_bus" depart="166.00" departLane="0" arrival="881.00">
        <route edges="-25415937#14 -25415937#13 -25415937#12 -25415937#11 -25415937#10 -25415937#9 -25415937#8 -25415937#4 19786304#4 19786304#5 19786304#6 172204392 120395206 120395207#0 120395207#1 120395207#2 120395207#3 120395207#4 120395207#5 -29560338#2 29560819#1 45356981 29640144#1 -674133614#7 -674133614#6 -674133614#5 -674133614#3 -674133614#2 -674133615#5 -674133615#4 -674133615#3 -200775246#3 -200775246#0 -200767367#4 -200767367#3 -200767367#1 -200767367#0 -38198840#1 -38198840#0 -200767369#1 -200767369#0 -200767368#2 -674133616#2 -156579473#3 -156579473#2 -156579473#0 -398618993#3 749259904#0 749259903#0 30962392#0 30962392#2 30962392#3 30961315#0 478432727#0 156597539#1 156597539#2 156597539#3 156597539#4 156597539#5 156597539#6"/>
        <stop busStop="-3949690688" duration="30.00"/>
        <stop busStop="-3949690698" duration="30.00"/>
        <stop busStop="3949690707" duration="30.00"/>
        <stop busStop="3949690695" duration="30.00"/>
        <stop busStop="-1706123248" duration="30.00"/>
        <stop busStop="-3949690701" duration="30.00"/>
        <stop busStop="3884823901" duration="30.00"/>
        <stop busStop="2959940322" duration="30.00"/>
        <stop busStop="4484465428" duration="30.00"/>
    </vehicle>

    <vehicle id="52_train_S2:2" type="pt_train" depart="484.00" departLane="0" arrival="904.00">
        <route edges="30144209 292551161 349933512#0 349933512#1 349933512#2"/>
        <stop busStop="332219312" duration="30.00"/>
        <stop busStop="34654812" duration="30.00"/>
    </vehicle>

    <vehicle id="26_bus_M46:1" type="pt_bus" depart="218.00" departLane="0" arrival="917.00">
        <route edges="-837200677#2 -837200677#1 -837200677#0 -647762532 -41517092#2 -41517092#1 -41517092#0 31003252#2 5096267#2 5096267#3 -785566177#1 -785566177#0 -5364950 -31003576#17 -31003576#16 -31003576#15 -31003576#14 -31003576#12 -31003576#11 -31003576#10 -31003576#9 -31003576#8 -31003576#6 -31003576#5 -31003576#4 -31003576#3 -31003576#2 -31003576#1 299768380 299768364 4357829#2 4357829#3 4357829#4 4357829#5 4357829#6 4357829#7 4357829#8 4357829#9 431727416#0 31003577 -549990625#1 -549990625#0 -151456841#20 -151456841#18 -151456841#15 -151456841#14 -151456841#13 -151456841#11 -151456841#10 -151456841#7 -151456841#3 -151456841#2 -151456841#1 -151456841#0 708434641 151372365#0 151372365#1 708595510#1 31003580#0 31003580#1 151372362#1 464372608#0 4357826#0 354645907#0 354645907#1 354645907#2 354645907#3 354645907#4 354645907#5"/>
        <stop busStop="3887481862" duration="30.00"/>
        <stop busStop="-3992224610" duration="30.00"/>
        <stop busStop="-3992224608" duration="30.00"/>
        <stop busStop="3887481882" duration="30.00"/>
        <stop busStop="-637820357" duration="30.00"/>
        <stop busStop="3948690906" duration="30.00"/>
        <stop busStop="1641989545" duration="30.00"/>
    </vehicle>

    <vehicle id="34_bus_184:0" type="pt_bus" depart="331.00" departLane="0" arrival="1014.00">
        <route edges="4395057#0 4395057#2 4395057#3 4395057#4 4395057#5 30709738#0 487201071#0 938849670#1 42752175 176372126#0 176372126#1 176372126#2 176372126#5 176372126#6 176372126#7 176372126#8 176372126#9 -151353906#5 -151353906#3 -151353906#2 -151353906#1 -151353906#0 311105516#0 311105516#1 311105516#2 311105516#3 311105516#4 311105516#5 -148310743#2 -148310743#1 -148310743#0 30244894#0 182941608 327636273 327636274#0 327636274#1 182944200#0 182944200#1 327636275#1 435717647#2 255203104 30244668#0 151355410#0 151355410#1 -181092057#9 -181092057#8 -181092057#7 -181092057#6 -181092057#5 -181092057#3 -181092057#2"/>
        <stop busStop="2959911355" duration="30.00"/>
        <stop busStop="2959939717" duration="30.00"/>
        <stop busStop="-3953205647" duration="30.00"/>
        <stop busStop="3953205605" duration="30.00"/>
        <stop busStop="3953205622" duration="30.00"/>
        <stop busStop="3953205609" duration="30.00"/>
        <stop busStop="3953205646" duration="30.00"/>
        <stop busStop="-3953205618" duration="30.00"/>
        <stop busStop="-3953205637" duration="30.00"/>
    </vehicle>

    <vehicle id="35_bus_184:1" type="pt_bus" depart="346.00" departLane="0" arrival="1027.00">
        <route edges="181092057#0 181092057#3 181092057#4 181092057#6 181092057#7 181092057#8 181092057#9 151355409#0 151355409#2 31773582#0 172321334#0 435717650#0 435717650#1 435717650#2 435717650#3 435717650#4 435717650#5 435717650#6 435717650#7 182944199#0 182944199#2 148310743#0 148310743#1 148310743#2 311105515#0 311105515#1 311105515#2 311105515#3 311105515#4 311105515#5 151353906#0 151353906#1 151353906#2 151353906#3 151353906#4 30245005#1 30245005#2 30245005#3 30245005#4 30245005#5 30245005#7 30245005#8 938849669#0 116703659 30709737#0 708595512#1 327627453#0 327627453#1"/>
        <stop busStop="3953205636" duration="30.00"/>
        <stop busStop="3953205617" duration="30.00"/>
        <stop busStop="3953205645" duration="30.00"/>
        <stop busStop="3953205610" duration="30.00"/>
        <stop busStop="3953205623" duration="30.00"/>
        <stop busStop="3953205606" duration="30.00"/>
        <stop busStop="3953205648" duration="30.00"/>
        <stop busStop="3948690909" duration="30.00"/>
        <stop busStop="3948690907" duration="30.00"/>
    </vehicle>

    <vehicle id="60_bus_283:0" type="pt_bus" depart="583.00" departLane="0" arrival="1040.00">
        <route edges="69409362#0 69409362#1 69409362#2 69409362#3 69409362#4 69409362#5 69409362#6 69409362#7 29560338#1 29491064#0 29491064#1 48204103 120395206 120395207#0 120395207#1 120395207#2 120395207#3 120395207#4 120395207#5 -29560338#2 29560819#1 45356981 -4719084 154837267#0 154837267#1 154837267#2 154837267#4 154837267#8 154837267#9 154837267#10 154837267#11 154837267#12"/>
        <stop busStop="4032902743" duration="30.00"/>
        <stop busStop="4032902707" duration="30.00"/>
        <stop busStop="3949690707" duration="30.00"/>
        <stop busStop="3949690692" duration="30.00"/>
        <stop busStop="3949690690" duration="30.00"/>
        <stop busStop="276998054" duration="30.00"/>
    </vehicle>

    <vehicle id="58_bus_X11:3" type="pt_bus" depart="561.00" departLane="0" arrival="1049.00">
        <route edges="114381363#0 114381363#1 114381363#2 114381363#3 72307633#0 72307633#2 72307633#3 72307633#4 72307633#5 72307633#6 72307633#7 72307633#8 72307633#9 72307633#10 72307633#11 72307633#14 72307633#15 72307633#16 72307633#17 72307633#18 983507005#1 966158287#0 966158287#1 966158287#2 211576016#1 211576016#2 4713303#1 37815463#1 37815463#3 60913017#1 60913017#2 60913017#3 60913017#4 60913017#7 29887243#0 29887243#2 29887243#3 29887243#4 29887243#5 63972161#0 63972161#2 29546980#0 29546980#1 29546980#2 712590575#1 712355891#2 712355891#4 712355891#5 -28100655#3 -28100655#2 -28100655#1 28100651#0 28100651#1 28100651#2 28100651#3 29434388#1 29434388#2 29434388#3 404580763#0 404580768#1 404580768#2 404580768#3"/>
        <stop busStop="3837126272" duration="30.00"/>
        <stop busStop="3835766168" duration="30.00"/>
        <stop busStop="3835766171" duration="30.00"/>
    </vehicle>

    <vehicle id="38_bus_170:0" type="pt_bus" depart="365.00" departLane="1" arrival="1054.00">
        <route edges="600378287#0 600378287#2 39981766#0 39981766#1 137728445 -970998127#1 -970998127#0 -156597533 -970998128 -824512026#0 -824512027#3 -970998126#0 -589685195#5 -589685195#4 -589685195#3 -589685195#2 -589685195#1 -589685195#0 -4603505#1 -4603505#0 151621510 -400776903 -898035576 -4677871#3 -4677871#2 -4677871#1 -4677871#0 -40193017#7 -40193017#5 -40193017#4 -40193017#1 151369411#0 151369411#2 785567931#0 785567931#1 785567931#2 785567931#3 785567931#7 785567931#8 785567931#9 785567931#10 58700252#0 58700252#2 58700250#0 58700251 225436872#0 225436872#1 225436872#2 225436872#3 225436872#4 225436872#5 108776738#0 108776738#1 151355408#0 151355408#2 24319026 255203104 151355404#0 151355404#1 4663228#0 4663228#1 4663228#2 505304355#0 505304355#1 505304355#2 309598724#0 309598724#3"/>
        <stop busStop="-3948196635" duration="30.00"/>
        <stop busStop="4032902709" duration="30.00"/>
        <stop busStop="-4032902744" duration="30.00"/>
        <stop busStop="3992224599" duration="30.00"/>
        <stop busStop="3992224613" duration="30.00"/>
        <stop busStop="3948690910" duration="30.00"/>
        <stop busStop="3953205607" duration="30.00"/>
        <stop busStop="3953205603" duration="30.00"/>
    </vehicle>

    <vehicle id="9_bus_172:0" type="pt_bus" depart="60.00" departLane="0" arrival="1080.00">
        <route edges="345381310#1 156579502#0 156579502#3 156579502#4 793361251 -325000951#16 -325000951#15 -325000951#14 -325000951#13 -325000951#12 -325000951#11 -325000951#10 -325000951#8 -325000951#7 -325000951#6 -325000951#4 -325000951#3 -325000951#2 -325000951#1 -325000951#0 -152596649#3 -152596649#2 -152596649#1 -152596649#0 -4378695#2 -4378695#1 -4378695#0 -404580759#0 -30084960#15 -30084960#14 -30084960#13 -30084960#12 -30084960#11 -30084960#10 -30084960#9 -30084960#6 -30084960#5 -30084960#2 -30084960#1 -30084960#0 152596640#0 152596640#2 64824378#0 64824378#1 211549577#0 30084959#1 30084959#2 30084959#3 30084959#4 30084959#5 30084959#6 30084665#0 37815458#0 37815458#1 37910331#0 -160765597#5 -160765597#3 -160765597#2 -160765597#1 -160765597#0 -282985769#16 -282985769#15 -282985769#14 -282985769#13 -282985769#12 -282985769#11 -282985769#10 -282985769#9 -282985769#8 -282985769#7 -282985769#6 -282985769#5 -282985769#4 -282985769#3 -282985769#2 -282985769#0 -282985770#2 -282985770#1 -282985770#0 -156350705#0 22910107#0 22910107#1 22910107#2 22910107#3 22910107#4 22910107#5 22910107#6"/>
        <stop busStop="3858390217" duration="30.00"/>
        <stop busStop="3960133669" duration="30.00"/>
        <stop busStop="-3960133661" duration="30.00"/>
        <stop busStop="-3948196632" duration="30.00"/>
        <stop busStop="-3948196597" duration="30.00"/>
        <stop busStop="3410465343" duration="30.00"/>
        <stop busStop="3948196624" duration="30.00"/>
        <stop busStop="3948196609" duration="30.00"/>
        <stop busStop="-3948196611" duration="30.00"/>
        <stop busStop="-3960133665" duration="30.00"/>
        <stop busStop="-3960133663" duration="30.00"/>
        <stop busStop="-3960133670" duration="30.00"/>
        <stop busStop="-3960133667" duration="30.00"/>
        <stop busStop="3472960882" duration="30.00"/>
    </vehicle>

    <vehicle id="61_bus_283:1" type="pt_bus" depart="593.00" departLane="0" arrival="1094.00">
        <route edges="-461128132#0 -461125970#0 -154837267#11 -154837267#10 -154837267#9 -154837267#8 -154837267#6 -154837267#3 -154837267#1 -154837267#0 4719084 29640145 45356977 550526230#0 29560338#1 29491064#0 29491064#1 48204103 120395206 120395207#0 120395207#1 120395207#2 120395207#3 120395207#4 120395207#5 -29560338#2 -69409362#8 -69409362#6 -69409362#5 -69409362#4 -69409362#3 -69409362#2 -69409362#1 -69409362#0"/>
        <stop busStop="-3949690687" duration="30.00"/>
        <stop busStop="-3949690710" duration="30.00"/>
        <stop busStop="-3949690691" duration="30.00"/>
        <stop busStop="3949690693" duration="30.00"/>
        <stop busStop="3949690706" duration="30.00"/>
        <stop busStop="-4032902708" duration="30.00"/>
        <stop busStop="-4032902742" duration="30.00"/>
    </vehicle>

    <vehicle id="10_bus_172:1" type="pt_bus" depart="93.00" departLane="0" arrival="1102.00">
        <route edges="-22910107#8 -22910107#5 -22910107#4 -22910107#3 -22910107#2 -22910107#1 -22910107#0 156350705#0 156350705#1 282985770#1 282985770#2 282985770#3 282985769#1 282985769#3 282985769#4 282985769#5 282985769#6 282985769#7 282985769#8 282985769#9 282985769#10 282985769#11 282985769#12 282985769#13 282985769#14 282985769#15 282985769#16 160765597#0 160765597#1 160765597#2 160765597#3 160765597#5 -37910331#1 -37815458#2 -37815458#0 -30084665#2 30084664#1 30084664#2 30084664#3 219065201#1 -64824378#1 -64824378#0 -152596640#2 -152596640#0 30084960#0 30084960#1 30084960#2 30084960#3 30084960#6 30084960#7 30084960#10 30084960#11 30084960#12 30084960#13 30084960#14 30084960#15 404580759#0 4378695#0 4378695#1 4378695#2 152596649#0 152596649#1 152596649#2 152596649#3 152596649#4 325000951#1 325000951#2 325000951#3 325000951#4 325000951#6 325000951#7 325000951#8 325000951#10 325000951#11 325000951#12 325000951#13 325000951#14 325000951#15 325000951#16 -793361251 -156579502#4 -156579502#3 -156579502#2 -858123638#2 -345381310#0"/>
        <stop busStop="-3472963023" duration="30.00"/>
        <stop busStop="-3960133657" duration="30.00"/>
        <stop busStop="3960133666" duration="30.00"/>
        <stop busStop="3960133671" duration="30.00"/>
        <stop busStop="3960133662" duration="30.00"/>
        <stop busStop="3960133664" duration="30.00"/>
        <stop busStop="3948196612" duration="30.00"/>
        <stop busStop="3948196608" duration="30.00"/>